% Model:              fullCircleThoratic.mph
% Version:            COMSOL 5.4.0.388
% Date:               Jan 11 2020, 12:49
% Dimension:          3
% Nodes:              21343
% Expressions:        4
% Description:        Electric potential, Current density, x component, Current density, y component, Current density, z component
% Length unit:        m
% x                       y                        z                        V (V)                    ec.Jx (A/m^2)            ec.Jy (A/m^2)            ec.Jz (A/m^2)
-0.31625000000000003      -0.009999999999999962    0.006999999999999998     1.3982648369942655E-4    -2.4161895077294085E-4   -0.001165522711676914    3.9903452302464653E-4
-0.31625000000000003      -0.008386969709375337    0.007000000000000001     1.3982648369357468E-4    -1.808654787849502E-4    8.412427747213766E-4     5.539114110394741E-4
-0.31625000000000003      -0.00738079382243376     0.007000000000000001     1.3982648367354285E-4    -3.142484250371061E-4    0.001126513617057735     3.1333698168005316E-4
-0.31625000000000003      -0.00645516631440202     0.006999999999999999     1.3982648365963595E-4    -4.7460535434298666E-4   -3.4906618409412926E-5   3.7316179669057034E-4
-0.31625000000000003      -0.005044427235703433    0.006999999999999999     1.3982648367222072E-4    -3.034784325646977E-4    -5.724303857523711E-4    8.304459480949891E-4
-0.31625000000000003      -0.003948846059310443    0.007                    1.3982648369388235E-4    -1.4352932261364206E-4   -2.883547483727478E-4    3.064402937898622E-5
-0.31625000000000003      -0.0018600028265111533   0.007                    1.3982648369158962E-4    -7.067899190261989E-5    3.0482781738359123E-4    2.7052760274544744E-5
-0.31625000000000003      -0.0010639715454068192   0.007                    1.3982648368723259E-4    -9.630744713925918E-5    5.204160190492044E-4     6.499138160349594E-5
-0.31625000000000003      -5.4872620924400085E-5   0.007000000000000001     1.3982648367226035E-4    -9.838750195284639E-5    7.91816983182933E-4      2.8546805745204295E-4
-0.31625000000000003      0.0013532630204859215    0.007                    1.398264836531166E-4     -1.7903580726901086E-4   0.0016350506445034392    5.050040652948331E-4
-0.31625000000000003      0.002567592365327351     0.007                    1.398264836112441E-4     -0.001075909084191506    0.0019524251156011415    8.76586378305093E-4
-0.31625000000000003      0.002807700258184134     0.007                    1.3982648360569874E-4    -0.001039618594144871    0.001309548986633786     0.0010500496024371956
-0.31625000000000003      0.004617835189081182     0.007                    1.3982648358066107E-4    -4.967197905161798E-4    6.480712308475642E-4     0.0013097110434240743
-0.31625000000000003      0.005087471060768452     0.007                    1.3982648357534002E-4    -4.909347462435517E-4    8.56747139231011E-4      0.0013668765341901755
-0.31625000000000003      0.006207426801024464     0.007                    1.3982648355095819E-4    -8.601274484473798E-4    0.0012056720350045824    9.7366261066983E-4
-0.31625000000000003      0.007235749943521299     0.006999999999999999     1.3982648353263048E-4    -4.5949861909366324E-4   0.0016265169230994584    8.875162382796059E-4
-0.31625000000000003      0.007796650828981679     0.007                    1.3982648352920258E-4    3.358779903270245E-5     -2.3533597648714988E-4   0.0012741594770815901
-0.31625000000000003      0.00866233464241395      0.007                    1.3982648353643175E-4    9.921659950617587E-5     -8.261167830273586E-4    0.0014807908578737218
-0.31625000000000003      0.01000000000000004      0.006999999999999999     1.3982648353939642E-4    6.257444097890166E-5     6.192041102082158E-4     0.0010636544867104192
-0.31592966153272944      0.007630068301772999     0.007                    1.3982648353291126E-4    -5.9432383271685E-4      4.1634567171966246E-4    0.0013849641231343946
-0.3159145369167388       -0.007004742914974061    0.007                    1.3982648366970814E-4    -9.44435495960746E-4     7.466562849643527E-4     5.7819581200322756E-5
-0.3158552194581048       0.00292064946812009      0.006999999999999999     1.3982648360953638E-4    -0.001206277124271135    0.00131769508324807      7.056794956153071E-4
-0.3157459113978771       0.008566813226141792     0.007                    1.3982648354063032E-4    -5.248813982575719E-4    -4.477419210047338E-4    0.0014521143212245537
-0.31570638825460917      -0.007953946380077976    0.007                    1.3982648370029554E-4    -0.0013720017687718436   0.0011269345602250343    6.398745971198196E-4
-0.31541719974543586      -0.008794168356124       0.006999999999999999     1.3982648372179728E-4    -0.0022133960694853275   9.281356251914617E-4     6.337205564982838E-4
-0.3153808803313067       0.0052066631862807645    0.006999999999999999     1.3982648358329254E-4    -7.259072082636354E-4    7.579245310241311E-4     0.0010803382925599662
-0.315350473903548        -0.001052098583156953    0.007000000000000001     1.3982648369804208E-4    -5.076781611336502E-4    4.913466673724038E-4     7.04646688163023E-5
-0.31531446373971095      0.004535773942624274     0.007                    1.3982648359459277E-4    -8.536494836594671E-4    9.212929788145815E-4     9.237386973852735E-4
-0.3152210272302173       -0.005877021574901919    0.006999999999999999     1.3982648368578504E-4    -0.001628664423737824    -6.653726431380449E-4    4.5122250064575655E-4
-0.3151780199981555       -0.009249967690673542    0.006999999999999999     1.3982648373008966E-4    -0.0032726110855228856   5.549174648790184E-4     7.374437481788476E-4
-0.3151468658505531       -0.005592161771459517    0.007                    1.398264836935813E-4     -0.0013171852552370934   -6.79167769751861E-4     4.1878022913389415E-4
-0.31511581886989654      0.007311669178411006     0.007                    1.3982648354678E-4       -0.0011757766544154852   0.0011502618492743798    0.0015186532468571669
-0.31506160048039894      0.008556593897366196     0.006999999999999999     1.3982648355042508E-4    -0.0013493526766324305   -6.116224780231313E-4    0.0014276821984988506
-0.315046441227167        -0.0076641923327382434   0.007                    1.398264837052979E-4     -0.0021412485039023505   0.0012800403893445489    9.05593151240011E-4
-0.31502729237548455      -0.008551808322738446    0.007                    1.398264837277603E-4     -0.0026943500091903667   0.0012661999046157614    7.129403617869944E-4
-0.3150043262801525       -0.006108426384538331    0.007                    1.3982648369203232E-4    -0.0020170336383677663   -2.9665534817991585E-5   3.6608464059425605E-4
-0.31498793811410236      -0.008961386576453144    0.007                    1.3982648373820388E-4    -0.003503934361621397    0.0011148213794776188    8.485381283607438E-4
-0.3148412298286233       -0.009999999999999962    0.006999999999999998     1.3982648377142354E-4    -0.0070121989120516814   0.0016809698219488745    3.587887770138847E-4
-0.3148412298286233       -0.009999999999999962    0.006999999999999998     1.3982648377142354E-4    -4.883420474988355E-11   0.004829729460064971     2.056268356553686E-5
-0.3148412298286233       0.01000000000000004      0.007000000000000002     1.3982648357433987E-4    -0.0028616934067785906   -5.853694270048967E-4    8.615893466272043E-4
-0.3148412298286233       0.01000000000000004      0.007000000000000002     1.3982648357433987E-4    -2.191564519860023E-11   -0.0028085597463365247   -7.685212784457504E-5
-0.31481110392940603      4.339962330821869E-4     0.006999999999999999     1.3982648368486472E-4    -7.77563068260346E-4     9.069084566973478E-4     3.728760650719204E-4
-0.3148075049118733       -0.005814303204070723    0.007                    1.3982648369836696E-4    -0.001969980109553534    -2.330498033279995E-4    3.454031730685333E-4
-0.31479659122761494      0.01131559013884402      0.007000000000000001     1.4854717320687152E-4    -1.8565019771882665E-4   -0.0018683966414573918   5.3569541796037494E-6
-0.3147897494674786       -0.011507109370220573    0.007                    1.5674100795316174E-4    -2.8599002331999136E-4   0.002976221029200674     4.31012478961895E-6
-0.31476466139127673      0.012161731553033862     0.007                    1.522530632221021E-4     -5.743536539773249E-5    -0.0014524621371994537   -7.0382729114467494E-6
-0.3147395995561299       -0.012795167909753017    0.007                    1.657339102260388E-4     -1.9933493031251025E-5   0.0022438948928517563    6.605452966007572E-5
-0.3147313208816392       0.001738531563123123     0.006999999999999999     1.3982648366215017E-4    -7.85351878878015E-4     0.0014952174861519868    3.80254229032559E-4
-0.3147312805129426       -0.013008474417843653    0.007                    1.6726032883498446E-4    -6.778239648381564E-5    0.0020566773003102595    1.1073704791736967E-6
-0.3147303028534659       0.013026832760367923     0.007                    1.5538361278515035E-4    -5.435912599092533E-5    -0.0010620288831200324   -1.392142623586282E-5
-0.31472275198829036      -0.013201154134833451    0.007                    1.6815808883205566E-4    -6.473061204755173E-5    0.001998384891773777     -1.0731936498035473E-5
-0.31470237589023053      -0.006296308671581664    0.006999999999999999     1.398264837044911E-4     -0.0022403994589647184   1.9278336091151755E-4    6.60316443965811E-4
-0.31467705290342307      0.014233570701632559     0.007                    1.582898425013018E-4     -1.956583111733562E-5    -7.735980689932813E-4    -4.152232351740821E-6
-0.31465939420290334      -0.014644060617809918    0.006999999999999999     1.7531508594865975E-4    -4.3676791220639476E-5   0.0015015530977627717    -2.232828902878412E-6
-0.31463347994998025      0.015191194347267838     0.007000000000000001     1.6036805155742517E-4    -3.0040474247325306E-5   -5.899927260970347E-4    -8.848424296281702E-7
-0.31460830988829425      -0.01569657892122027     0.006999999999999999     1.7923277583867006E-4    -5.1415967722700566E-5   0.0012750894750761777    -8.499220416983528E-6
-0.3145863858456355       -0.0161314256615244      0.007000000000000001     1.8073338448606392E-4    -5.848695620026594E-5    0.001200149543464035     -1.551280710626679E-5
-0.3145731744496518       0.01634159223391183      0.006999999999999999     1.6170636852345623E-4    -1.619046597320272E-5    -4.5946598564479337E-4   5.1423733871798E-6
-0.3145590474559558       -0.0022791694757388625   0.007                    1.3982648371383593E-4    -8.602466971977783E-4    1.2743882696758296E-4    7.716304594563387E-5
-0.31454937849964926      -0.012953309331952033    0.007                    1.6709690851119308E-4    -1.3413491246497324E-4   0.0021001853223425074    1.851012389750971E-5
-0.3145076987034572       0.017603108186114772     0.007                    1.633229612407412E-4     -1.1487303030025283E-5   -3.277062656501293E-4    -6.965750599698212E-6
-0.3145027338399457       -0.017687193748237115    0.006999999999999999     1.8544458879056957E-4    -6.18018964176425E-5     9.826130206626472E-4     -3.7617438547031517E-6
-0.3144808274402444       -0.008780678231812781    0.006999999999999999     1.398264837556344E-4     -0.002949245370572646    0.002396151348932161     8.985979657694356E-4
-0.31446067937088035      -0.01262560979431861     0.006999999999999999     1.6493995698290488E-4    -2.4411969015847366E-4   0.0023145612476640235    6.9770032405519014E-6
-0.31445119431593316      -0.004788859365670997    0.007000000000000001     1.3982648370772618E-4    -0.0014708068447373025   -1.7566629374870474E-4   3.186307931719065E-4
-0.31444381406550914      -0.01869060964553773     0.007                    1.8795464899804606E-4    -6.638551993610746E-5    8.775240575021443E-4     -6.5778810925048305E-6
-0.31444106313816333      0.018734378299240267     0.007                    1.6407394245840465E-4    -1.2558512969680434E-5   -2.3819324354623682E-4   -9.412999173433847E-6
-0.3143444391442377       0.020283852874632944     0.007                    1.6489105763455757E-4    -1.2222640773417063E-5   -1.429668512009169E-4    -2.9276089824089597E-6
-0.3143442826329583       -0.007633854157731382    0.007                    1.3982648372983837E-4    -0.0021259249902486556   0.0012955825272985542    0.0010291411520510284
-0.31430745643194846      -0.003603221212114532    0.006999999999999999     1.3982648371859408E-4    -0.001122330852359642    1.6192496364129608E-4    1.409766865725193E-4
-0.3142936015980117       -0.021051126343155965    0.007                    1.9310140700698394E-4    -4.3048320234686355E-5   7.026407652074304E-4     -5.076077366198324E-6
-0.31425336626114686      0.007774848874925446     0.007000000000000001     1.398264835631977E-4     -9.31124269396719E-4     4.511981607195787E-4     0.001634629799137683
-0.31421066920199225      0.022283207108226295     0.006999999999999999     1.655509696058201E-4     -4.33630721441734E-6     -4.368561045925825E-5    -4.121322453973867E-6
-0.3141755399079693       -0.022761516239515       0.007                    1.963470940845035E-4     -4.4568538600447646E-5   6.175763299112572E-4     -6.3626931623636495E-6
-0.31412925331019403      0.008595072990810106     0.006999999999999999     1.3982648355621123E-4    2.6667385683706786E-4    -8.29859102311237E-4     0.0015506624341074106
-0.3140974414620044       -0.015705966784552976    0.007                    1.7960375935629258E-4    -1.2691628249943644E-4   0.0012590928995612264    -1.519959050013087E-5
-0.3140351387824267       -0.013665284386327668    0.006999999999999999     1.7106918162724258E-4    -2.746376108412038E-4    0.0017801797043053643    1.0101694770950055E-5
-0.313968283832777        0.007289348401241973     0.007                    1.398264835695252E-4     -0.0012194718935294186   7.508188198522944E-4     0.001785195137956416
-0.31396688659771754      0.02541655815559369      0.007                    1.6527316056808188E-4    6.832984069176868E-6     5.037313089071356E-5     -6.541489803807487E-6
-0.31394635786872743      0.012997575266130584     0.007                    1.5567482024503654E-4    -2.085980583050139E-4    -0.0010472377672096202   -8.8034975067812E-6
-0.31393645326932734      -0.01137613030289314     0.007000000000000001     1.569986212045549E-4     -7.58670405736692E-4     0.0029171264527925655    1.2462438721795973E-5
-0.3139005085127794       -0.02624169622547111     0.006999999999999999     2.0145123570984E-4       -4.3122286502360686E-5   4.913781423816562E-4     -9.439291063821498E-6
-0.3138696307649989       0.026659344492356463     0.006999999999999999     1.6519906799419802E-4    7.4291525036879315E-6    8.737485360730375E-5     -4.888683151197088E-6
-0.3138445673794901       -0.02695521410622571     0.007                    2.02548749930301E-4      -4.0135365032202125E-5   4.6572317855529633E-4    -7.493156946596462E-6
-0.31382413526081593      0.013823866117871186     0.007                    1.577043060141147E-4     -1.9645573052842432E-4   -8.344953238107463E-4    -1.0445193307312253E-5
-0.3137500000000001       -3.542591344253488E-4    0.007000000000000001     1.3982648370994472E-4    -0.001237671405467031    6.565468198023477E-4     1.7923329453000607E-4
-0.3137500000000001       -3.542591344253488E-4    0.007000000000000001     1.3982648370994472E-4    -0.0013739967043538742   1.3505473159955204E-6    5.791132590829654E-7
-0.31375000000000003      -0.009999999999999962    0.006999999999999998     1.3982648395981316E-4    -0.012955864869823586    0.015089919240186623     0.0019457787767067933
-0.31375000000000003      -0.009999999999999962    0.006999999999999998     1.3982648395981318E-4    -0.003505313716426847    0.0038656875401716904    1.462851169271164E-4
-0.31375000000000003      -0.008729709916911424    0.007                    1.3982648378636358E-4    -7.277894429181441E-4    0.003072273388692783     0.0012674748999772013
-0.31375000000000003      -0.008729709916911424    0.007                    1.3982648378636358E-4    -0.0030971802159938614   1.0345299234365607E-11   5.161896506594984E-12
-0.31375000000000003      -0.008201973793950941    0.007000000000000001     1.3982648376883758E-4    -0.0021504604605804166   0.0019416401449956257    0.001038528030810356
-0.31375000000000003      -0.008201973793950941    0.007000000000000001     1.3982648376883758E-4    -0.002759225115571302    1.0202191237999917E-11   7.091447732997427E-12
-0.31375000000000003      -0.007227147492671085    0.006999999999999999     1.398264837421568E-4     -0.002068729796831173    9.520321861864437E-4     8.875281666465912E-4
-0.31375000000000003      -0.007227147492671085    0.006999999999999999     1.398264837421568E-4     -0.002238823673417963    1.2922185082277091E-5    7.5346851024369364E-6
-0.31375000000000003      -0.006213932964539471    0.007                    1.3982648373690338E-4    -0.0018138728795100891   3.9954623292972566E-4    4.435620019547363E-4
-0.31375000000000003      -0.006213932964539471    0.007                    1.3982648373690338E-4    -0.0019593604461839924   1.0149032186375417E-5    -6.105669539938709E-6
-0.31375000000000003      -0.005179922266332521    0.006999999999999999     1.3982648372892563E-4    -0.0016634711884085291   -4.2532919193407654E-5   2.4001927713989895E-4
-0.31375000000000003      -0.005179922266332521    0.006999999999999999     1.3982648372892563E-4    -0.0017537001244260625   4.308144180491269E-6     1.1854232062419228E-6
-0.31375000000000003      -0.0036489758568744755   0.007                    1.3982648372715817E-4    -0.0014617991184527033   3.007525715074031E-4     1.791953250419798E-4
-0.31375000000000003      -0.0036489758568744755   0.007                    1.3982648372715817E-4    -0.0015837504101649793   1.4882922838024944E-12   1.2840712940994415E-12
-0.31375000000000003      -0.003377674797348319    0.007                    1.398264837264063E-4     -0.00136120123309912     2.6982597474435176E-4    2.301580843908246E-4
-0.31375000000000003      -0.003377674797348319    0.007                    1.398264837264063E-4     -0.0015574727336432601   1.6527831459164589E-12   1.3615855596957231E-12
-0.31375000000000003      -0.0029900672408450873   0.007                    1.3982648372510084E-4    -0.0012810463277093767   1.1394505041255722E-4    3.7674761920228595E-5
-0.31375000000000003      -0.0029900672408450873   0.007                    1.3982648372510084E-4    -0.001524246503955457    -1.0118386518842678E-7   -1.549835883427447E-7
-0.31375000000000003      -0.0014855817026016953   0.006999999999999999     1.3982648371928987E-4    -0.0012227172776419141   4.203833845466904E-4     1.2130025121949401E-4
-0.31375000000000003      -0.0014855817026016953   0.006999999999999999     1.3982648371928987E-4    -0.0014358542299572799   2.3698556991434174E-12   7.429453552078026E-13
-0.31375000000000003      9.524492774312672E-4     0.007                    1.3982648368667577E-4    -0.0012677642638819944   0.0011732817817282429    3.57246957586802E-4
-0.31375000000000003      9.524492774312672E-4     0.007                    1.3982648368667577E-4    -0.0013393857691940123   -6.750579052612602E-7    9.420319746246705E-7
-0.31375000000000003      0.0018625473330961938    0.007                    1.3982648367360828E-4    -0.0010070865611640852   0.0014611779256641368    3.8930997038971564E-4
-0.31375000000000003      0.0018625473330961938    0.007                    1.3982648367360828E-4    -0.0013283904973323754   6.055089095917733E-12    2.1019459224940467E-12
-0.31375000000000003      0.0026952972893740006    0.007                    1.3982648365582512E-4    -0.001102106761433312    0.00104875955628685      2.915958894303076E-4
-0.31375000000000003      0.0026952972893740006    0.007                    1.3982648365582512E-4    -0.001318333611037773    6.335719747203629E-7     8.977250161575651E-7
-0.31375000000000003      0.004273096509307225     0.007                    1.3982648362517041E-4    -0.0011382196288543596   0.0012308062203356855    5.701574258369568E-4
-0.31375000000000003      0.004273096509307225     0.007                    1.3982648362517041E-4    -0.00135162814015513     -7.828745252535152E-6    3.0190019924097736E-6
-0.31375000000000003      0.0054216532098615615    0.007                    1.3982648360775745E-4    -0.0010614864155163175   9.189910233955245E-4     6.708266108309393E-4
-0.31375000000000003      0.0054216532098615615    0.007                    1.3982648360775745E-4    -0.0013980813455658763   -2.6456175517059054E-6   -9.976931949086714E-7
-0.31375000000000003      0.0067472737274608535    0.007                    1.3982648357819305E-4    -0.001019380866179942    8.62241435349584E-4      0.0014979206909563785
-0.31375000000000003      0.0067472737274608535    0.007                    1.3982648357819305E-4    -0.0015034895945212543   6.843758273796109E-6     -6.655802450701509E-6
-0.31375000000000003      0.007335385080392195     0.007                    1.3982648357415727E-4    -0.0014318924301587675   8.800072991830749E-4     0.0019154328226517407
-0.31375000000000003      0.007335385080392195     0.007                    1.3982648357415727E-4    -0.0015648813352267088   -9.664883140908262E-6    -1.044817244566101E-6
-0.31375000000000003      0.007946534529204559     0.007                    1.3982648356488547E-4    -2.734268112499555E-4    7.620091658901781E-4     0.0015810874695669057
-0.31375000000000003      0.007946534529204559     0.007                    1.3982648356488547E-4    -0.0017059755192547264   3.3657527941158086E-6    4.143519571772867E-6
-0.31375000000000003      0.01000000000000004      0.006999999999999999     1.398264836734793E-4     -0.007462025428053054    -0.008345987023705703    5.666431768247548E-4
-0.31375000000000003      0.01000000000000004      0.006999999999999999     1.398264836734793E-4     -0.0022723344912441495   -0.0021565716065467867   -3.5990659722753876E-5
-0.31375                  0.008746098258400515     0.006999999999999999     1.398264835732325E-4     -9.033417299199793E-5    -0.0020159568685481463   3.42082002898803E-4
-0.31375                  0.008746098258400515     0.006999999999999999     1.398264835732325E-4     -0.001950291178895298    -3.177005283796787E-5    5.356865758336458E-6
-0.31373260235179085      -0.02815397114897617     0.006999999999999999     2.039068861352275E-4     -3.9238716353028063E-5   4.388302844736505E-4     -4.53614078877288E-6
-0.3136819920921845       0.011638759370310659     0.006999999999999999     1.514412022133921E-4     -5.501206304904049E-4    -0.0013789530217897198   8.186312399424157E-6
-0.3136806098520981       -0.014644895385059684    0.007000000000000001     1.7596256773027587E-4    -2.1782658438745074E-4   0.0014426123041339845    -4.456358481886979E-6
-0.3135643153151938       0.030005278947618803     0.006999999999999999     1.639027406900576E-4     1.692770166740129E-5     1.650681623050577E-4     -3.321954565050956E-6
-0.3135110863243581       0.030590767623927526     0.007000000000000001     1.6369727719149824E-4    1.7700771702026272E-5    1.7903482137740105E-4    -4.202904105330635E-6
-0.31349331270570957      -0.01160210470115079     0.007                    1.5922777198709403E-4    -9.959647923670303E-4    0.0027074197929156706    2.1457991306642582E-5
-0.3134729130626742       0.030956291654718342     0.007                    1.6345909480793334E-4    1.8577203630044974E-5    1.8725526470841764E-4    -4.2974965380740475E-6
-0.31344312692623655      -0.03126960747980515     0.007                    2.0757471302608766E-4    -3.638179467996104E-5    3.6530131332904343E-4    -7.480669901677469E-6
-0.31337092773606223      0.007108202410392667     0.007                    1.4133972658037907E-4    -0.0015052436414457492   -3.9781286888457087E-5   2.1696794112198374E-6
-0.3133439717626815       -0.03223568503071046     0.007                    2.0847947972930228E-4    -3.520994968345976E-5    3.458469828692805E-4     -7.430174027442404E-6
-0.3133427252148677       -0.011158047283879348    0.007000000000000001     1.5666670660463084E-4    -0.0013192524226823296   0.002796546473140718     -1.9865321762331308E-5
-0.31333744354938603      0.008332176975933839     0.007000000000000001     1.4164059352392037E-4    -0.0017576404583810492   -1.2027171672072743E-4   -2.6393461728483743E-6
-0.31333103624929515      -0.012614947484921566    0.007000000000000001     1.6654217125915756E-4    -5.913953912287688E-4    0.0020361439754109168    -7.670708508620257E-6
-0.3133258900672161       0.030629834372249254     0.007                    1.6367401903785286E-4    1.6309875784399743E-5    1.8003711291170039E-4    -3.7379815175461328E-6
-0.3132796612899752       0.012380669692021243     0.007                    1.5420837143196095E-4    -5.093559829265321E-4    -0.0011388211902729818   8.638088767488759E-6
-0.3132731614166112       -0.0036189378666584083   0.007                    1.419304317309252E-4     -0.0015542717821715119   4.828905281571348E-5     5.8921626401818886E-6
-0.31326868004965247      0.007487693994149683     0.007000000000000001     1.4198286885410376E-4    -0.0015368917924712473   -1.0388530151068003E-4   1.0204703408410126E-5
-0.31326497290729904      0.003626941243205679     0.007                    1.4160345016597721E-4    -0.001320054858349576    -1.314351866446982E-5    -5.391906200312242E-6
-0.3132290130062602       0.008856604059709137     0.007                    1.427026868665172E-4     -0.0018697160580960779   -3.0078238516806734E-4   1.0076449502148407E-6
-0.31319925637267204      0.01320038711294852      0.007                    1.568201294087929E-4     -3.1982357045812735E-4   -8.952185262855645E-4    -2.7467436117876363E-6
-0.3131875103605          0.011417357276160639     0.007000000000000001     1.5106073576705048E-4    -7.50011141009096E-4     -0.0013328352362412467   5.369878600762229E-5
-0.31311189992533095      0.03442692049955427      0.007000000000000001     1.6137390242075073E-4    2.93362619010996E-5      2.6452869359299026E-4    -4.77553446500083E-6
-0.3130804981325096       0.011687005904916052     0.007                    1.524407765564313E-4     -6.840067665790172E-4    -0.0012906700382987722   -3.1383881121601023E-6
-0.31307508604861656      1.8718952172221216E-4    0.007000000000000001     1.423126950652681E-4     -0.0013423371230222806   1.8097707156052997E-5    -5.788339542742787E-6
-0.31300065208671246      0.001746380842430206     0.007                    1.4253886437754854E-4    -0.0013049095384921208   9.632991391599533E-6     8.705962394417238E-6
-0.31290433769354625      -0.0362544946249403      0.006999999999999999     2.118952567179758E-4     -2.970162956801865E-5    2.5942123438834697E-4    -7.563512941685527E-6
-0.31288038637421933      0.036432513892019194     0.007                    1.5961149553993356E-4    3.908821364512607E-5     3.190068824001691E-4     -6.977612950976296E-6
-0.31277925203827106      -0.005680619500013561    0.006999999999999999     1.4467759179009654E-4    -0.001760885370579787    1.6797033031843385E-4    1.4464273852509453E-5
-0.31275376597906335      -0.037539780304232086    0.007                    2.128258449659791E-4     -2.6596785893264617E-5   2.3379440665542651E-4    -8.177922069673786E-6
-0.3127412126737582       -0.013911933339216939    0.007000000000000001     1.7310085853649426E-4    -4.2697768985038606E-4   0.0015647484531614046    -2.1048751070508137E-5
-0.31271047975695987      0.01383263824227709      0.006999999999999999     1.5829284052944073E-4    -2.827715823863837E-4    -7.520769313150413E-4    -1.3133063669368166E-5
-0.3127077150919608       -0.0067498546424396635   0.006999999999999999     1.4548861374694946E-4    -0.0019155611377104954   2.125290627943333E-4     -3.598879101689524E-5
-0.31270505961238937      -0.008643238572565926    0.007                    1.471598390330118E-4     -0.0024473618246710718   6.105137014600233E-4     -7.148885531356885E-5
-0.3126773157887296       -0.001029985748362751    0.007000000000000001     1.4406530077716787E-4    -0.0013746481394095037   5.725959655871176E-5     -1.4867979506911567E-6
-0.31266388926501487      -0.010552562496104374    0.007                    1.5599399861299676E-4    -0.001957920012493458    0.0020577961560408076    -2.0805521196251256E-5
-0.312659536270831        0.016093397504268695     0.006999999999999999     1.622588746869801E-4     -1.6613124769565175E-4   -4.26348991321028E-4     1.4652806493960935E-6
-0.3126556201223588       -0.004717264569769593    0.006999999999999999     1.446552002777114E-4     -0.0016383443147371646   1.139436055919072E-4     3.8098898656163182E-6
-0.31260362026459637      -0.0019059411864349386   0.007                    1.4435651588925945E-4    -0.0014108280178898576   6.0811533587133805E-5    -1.3099672942258357E-5
-0.3125934580262478       0.011096739607901692     0.007                    1.517690907367685E-4     -8.172105307974198E-4    -0.001018565070383067    -7.481733276421721E-6
-0.31257103126267666      0.03904197959769515      0.007                    1.572411921310483E-4     4.829013307728726E-5     3.892503879538465E-4     -4.442802851341209E-6
-0.3124746556764102       -0.01161053992720366     0.007                    1.624149079644984E-4     -0.0011648602675771807   0.002171631990013687     -2.7276876660250084E-5
-0.31245180250469456      0.010440222658032556     0.006999999999999999     1.489454078527087E-4     -0.0013240332656722544   -0.0010769424949974332   -1.6511241354942195E-5