% Model:              fullCircleThoratic.mph
% Version:            COMSOL 5.4.0.388
% Date:               Jan 11 2020, 12:47
% Dimension:          3
% Nodes:              21343
% Expressions:        4
% Description:        Electric potential, Current density, x component, Current density, y component, Current density, z component
% Length unit:        m
% x                       y                        z                        V (V)                    ec.Jx (A/m^2)            ec.Jy (A/m^2)            ec.Jz (A/m^2)
-0.31625000000000003      -0.009999999999999962    0.006999999999999998     1.6939471619153667E-4    -8.350914219394194E-5    -3.625428364924706E-4    5.635805282860478E-4
-0.31625000000000003      -0.008386969709375337    0.007000000000000001     1.6939471616889956E-4    1.1084824383030359E-5    0.001460936803445019     6.640194644782623E-4
-0.31625000000000003      -0.00738079382243376     0.007000000000000001     1.6939471614287518E-4    -1.550896282642959E-4    0.0017390171690001308    7.989008718058211E-4
-0.31625000000000003      -0.00645516631440202     0.006999999999999999     1.6939471611832733E-4    -1.4528850501740472E-4   0.0015760640683288951    7.262362360461679E-4
-0.31625000000000003      -0.005044427235703433    0.006999999999999999     1.69394716085182E-4      1.9335809799205837E-4    0.001284659150563537     6.341980381599228E-4
-0.31625000000000003      -0.003948846059310443    0.007                    1.6939471606264777E-4    1.7786003379963697E-5    0.001643178563083658     5.381620394386816E-4
-0.31625000000000003      -0.0018600028265111533   0.007                    1.6939471599355582E-4    -7.355308227408397E-6    0.002094024965111634     3.1594220503765796E-4
-0.31625000000000003      -0.0010639715454068192   0.007                    1.693947159674931E-4     -4.7557455537880386E-5   0.0021878606241946515    2.9451452274208866E-4
-0.31625000000000003      -5.4872620924400085E-5   0.007000000000000001     1.6939471593151458E-4    -3.752378594568127E-5    0.0022204542680910027    3.3164392483447393E-4
-0.31625000000000003      0.0013532630204859215    0.007                    1.6939471588024954E-4    -2.7559834434656817E-5   0.0023415355959121678    3.460283260089075E-4
-0.31625000000000003      0.002567592365327351     0.007                    1.6939471583057807E-4    -2.36488711281552E-4     0.002660237564226356     4.6592493711123604E-4
-0.31625000000000003      0.002807700258184134     0.007                    1.69394715821312E-4      -2.1557047254689565E-4   0.002545461188967789     5.569000302882744E-4
-0.31625000000000003      0.004617835189081182     0.007                    1.6939471575177394E-4    -1.975256314591139E-4    0.002153353497322401     6.603158673235452E-4
-0.31625000000000003      0.005087471060768452     0.007                    1.6939471573502432E-4    -2.1735808890915262E-4   0.0020285913385578646    5.96535882186646E-4
-0.31625000000000003      0.006207426801024464     0.007                    1.6939471568946333E-4    -2.915041234089847E-4    0.002400469780551459     3.5819275755544455E-4
-0.31625000000000003      0.007235749943521299     0.006999999999999999     1.6939471565136075E-4    -4.291121791753926E-4    0.0026567500889918883    -1.8857610870646536E-5
-0.31625000000000003      0.007796650828981679     0.007                    1.6939471563560816E-4    -9.528889075750145E-5    0.0021243070773059682    -1.5659408811556598E-4
-0.31625000000000003      0.00866233464241395      0.007                    1.6939471560078762E-4    2.1474328979938416E-4    0.0010995464476618816    -9.99366504237072E-4
-0.31625000000000003      0.01000000000000004      0.006999999999999999     1.6939471559498457E-4    -2.069826795110825E-4    2.5517792878737566E-4    -7.794609291345012E-4
-0.31592966153272944      0.007630068301772999     0.007                    1.693947156426575E-4     -4.227958137294152E-4    0.0024225571287074094    -1.8273717229785294E-4
-0.3159145369167388       -0.007004742914974061    0.007                    1.693947161359457E-4     -4.043300551435859E-4    0.0016504373400600472    7.189439130342642E-4
-0.3158552194581048       0.00292064946812009      0.006999999999999999     1.69394715818937E-4      -3.3362410411463394E-4   0.002529682891584033     3.7555335733302926E-4
-0.3157459113978771       0.008566813226141792     0.007                    1.6939471560618532E-4    -5.040580261059333E-4    0.0016990689545396944    -9.528000884964768E-4
-0.31570638825460917      -0.007953946380077976    0.007                    1.6939471616347928E-4    -5.131875926677648E-4    0.0015636364948037388    7.047307151991681E-4
-0.31541719974543586      -0.008794168356124       0.006999999999999999     1.6939471618938532E-4    -0.001075990202398994    0.0015602944492550037    6.899438403467085E-4
-0.3153808803313067       0.0052066631862807645    0.006999999999999999     1.6939471573489598E-4    -3.613340616579416E-4    0.0020771286557191558    4.436598562720868E-4
-0.315350473903548        -0.001052098583156953    0.007000000000000001     1.693947159718163E-4     -1.844026757888792E-4    0.0021391793938806227    2.7570299568663705E-4
-0.31531446373971095      0.004535773942624274     0.007                    1.6939471575958063E-4    -4.0464810533658816E-4   0.002190742994603402     4.268250461217526E-4
-0.3152210272302173       -0.005877021574901919    0.006999999999999999     1.6939471610770998E-4    -6.968030767162431E-4    0.0015125258675398104    4.981663618545055E-4
-0.3151780199981555       -0.009249967690673542    0.006999999999999999     1.693947161981191E-4     -0.001680673087187268    0.0012034069317620843    6.995367516659862E-4
-0.3151468658505531       -0.005592161771459517    0.007                    1.6939471610224032E-4    -8.486640920367691E-4    0.0011634946473287767    4.500923718577944E-4
-0.31511581886989654      0.007311669178411006     0.007                    1.693947156585483E-4     -4.970662834869866E-4    0.002473480509111557     5.941313253733549E-5
-0.31506160048039894      0.008556593897366196     0.006999999999999999     1.6939471560767865E-4    -7.119809739947275E-4    0.0018206313876089574    -7.637998384065661E-4
-0.315046441227167        -0.0076641923327382434   0.007                    1.6939471616196188E-4    -9.85901803508191E-4     0.0017161636460617962    7.274143848938054E-4
-0.31502729237548455      -0.008551808322738446    0.007                    1.6939471618733235E-4    -0.0012677535098264523   0.0017211460797765133    7.0447554266817E-4
-0.3150043262801525       -0.006108426384538331    0.007                    1.6939471611556063E-4    -9.112803434299079E-4    0.001842782065417789     3.285136847308104E-4
-0.31498793811410236      -0.008961386576453144    0.007                    1.6939471619873732E-4    -0.001664269737363458    0.001741652010904524     6.500560660874911E-4
-0.3148412298286233       -0.009999999999999962    0.006999999999999998     1.693947162334536E-4     -0.004149953298476625    0.0015139452613777138    3.1537344101479183E-4
-0.3148412298286233       -0.009999999999999962    0.006999999999999998     1.693947162334536E-4     -2.686614436056929E-11   0.003067511050504737     1.2589403264147335E-5
-0.3148412298286233       0.01000000000000004      0.007000000000000002     1.693947156062468E-4     -0.001217777298214336    -3.320972210193081E-4    -9.90262074655283E-4
-0.3148412298286233       0.01000000000000004      0.007000000000000002     1.693947156062468E-4     -1.243951876783722E-11   -7.343802117111692E-4    -2.361833174830648E-5
-0.31481110392940603      4.339962330821869E-4     0.006999999999999999     1.6939471591865334E-4    -2.4775421915185507E-4   0.002242792098709184     2.793646576738387E-4
-0.3148075049118733       -0.005814303204070723    0.007                    1.6939471611212623E-4    -0.0012482869998966602   0.0014548912585793511    2.788340765525808E-4
-0.31479659122761494      0.01131559013884402      0.007000000000000001     1.7162376665923437E-4    -5.1271419878876464E-5   -4.5621965563619166E-4   -4.6531064565233225E-7
-0.3147897494674786       -0.011507109370220573    0.007                    1.8018138051731784E-4    -1.8005491270950167E-4   0.0019162349916806813    1.1104802553762241E-6
-0.31476466139127673      0.012161731553033862     0.007                    1.7248367825900587E-4    -1.3088279782492822E-5   -3.269090662606272E-4    -4.456287949829033E-6
-0.3147395995561299       -0.012795167909753017    0.007                    1.8602882052186733E-4    -1.5515379228448506E-5   0.0014707606868776151    3.906014842391632E-5
-0.3147313208816392       0.001738531563123123     0.006999999999999999     1.6939471587234964E-4    -2.817869218858405E-4    0.002363438725548786     2.966841605025964E-4
-0.3147312805129426       -0.013008474417843653    0.007                    1.8701946910766143E-4    -4.533651021052781E-5    0.001355767856941971     -1.4929291998786758E-6
-0.3147303028534659       0.013026832760367923     0.007                    1.7315773779576893E-4    -1.1638712245160944E-5   -2.0335562937944378E-4   -7.184416852354249E-6
-0.31472275198829036      -0.013201154134833451    0.007                    1.8762234696922855E-4    -4.354967181569049E-5    0.0013208181266627238    -8.949504755054699E-6
-0.31470237589023053      -0.006296308671581664    0.006999999999999999     1.6939471612708757E-4    -0.00111819594108338     0.0017847894230192585    3.546150687390411E-4
-0.31467705290342307      0.014233570701632559     0.007                    1.7362114600071488E-4    -7.888101900538127E-8    -1.0704698679567342E-4   -4.551329291996991E-6
-0.31465939420290334      -0.014644060617809918    0.006999999999999999     1.9240107703372765E-4    -3.136166038038657E-5    0.0010222509965100272    -4.2179462203350035E-6
-0.31463347994998025      0.015191194347267838     0.007000000000000001     1.7391601406242354E-4    -2.6056279724972985E-6   -4.4195588764389645E-5   -3.906790095306163E-6
-0.31460830988829425      -0.01569657892122027     0.006999999999999999     1.9510873078903133E-4    -3.696458313014947E-5    8.881949400032737E-4     -8.139589793754703E-6
-0.3145863858456355       -0.0161314256615244      0.007000000000000001     1.9615728162343578E-4    -4.14841110145525E-5     8.442055205954519E-4     -1.2489044620508152E-5
-0.3145731744496518       0.01634159223391183      0.006999999999999999     1.7386347730536462E-4    2.835081842654914E-6     2.8314380526349732E-6    -2.2765719613070797E-6
-0.3145590474559558       -0.0022791694757388625   0.007                    1.693947160178904E-4     -4.1971828552247493E-4   0.00210203559336565      4.145988034659628E-4
-0.31454937849964926      -0.012953309331952033    0.007                    1.8690616526113011E-4    -8.558439787433839E-5    0.0013826017663433221    9.296053640453159E-6
-0.3145076987034572       0.017603108186114772     0.007                    1.7385884418010225E-4    5.106522171878109E-6     5.058556192952436E-5     -6.30980667660949E-6
-0.3145027338399457       -0.017687193748237115    0.006999999999999999     1.995252683033302E-4     -4.423748988709432E-5    7.17263785548604E-4      -5.557713686445551E-6
-0.3144808274402444       -0.008780678231812781    0.006999999999999999     1.693947162069554E-4     -0.0016400772940600346   0.0025501696590910414    8.333270645745916E-4
-0.31446067937088035      -0.01262560979431861     0.006999999999999999     1.855016636350261E-4     -1.5333776684302842E-4   0.0015135499432583678    2.1835127411152633E-6
-0.31445119431593316      -0.004788859365670997    0.007000000000000001     1.693947160888242E-4     -9.652212889669663E-4    0.0015689286677910124    5.370710266051533E-4
-0.31444381406550914      -0.01869060964553773     0.007                    2.0139155964498236E-4    -4.754263246502052E-5    6.568995182208807E-4     -7.355038280811916E-6
-0.31444106313816333      0.018734378299240267     0.007                    1.735972428201709E-4     5.619917419568174E-6     8.382991587982872E-5     -7.251825665364298E-6
-0.3143444391442377       0.020283852874632944     0.007                    1.7315892426486906E-4    6.697866825953593E-6     1.2040110139212597E-4    -5.0832548455953546E-6
-0.3143442826329583       -0.007633854157731382    0.007                    1.6939471617458712E-4    -0.0011776132754298164   0.0017105213943024132    7.2760311373999E-4
-0.31430745643194846      -0.003603221212114532    0.006999999999999999     1.6939471606477663E-4    -6.310709474744535E-4    0.0020138721010343782    4.804919920175685E-4
-0.3142936015980117       -0.021051126343155965    0.007                    2.0535306214047237E-4    -3.504353868845615E-5    5.576483358988119E-4     -6.572845194443641E-6
-0.31425336626114686      0.007774848874925446     0.007000000000000001     1.6939471564255326E-4    -5.424320691394317E-4    0.002148781859648675     -2.422513057373312E-4
-0.31421066920199225      0.022283207108226295     0.006999999999999999     1.7243993548560958E-4    1.0847309571723565E-5    1.591468470138296E-4     -5.536284362272179E-6
-0.3141755399079693       -0.022761516239515       0.007                    2.0794956358290923E-4    -3.6807348140957064E-5   5.103161268762165E-4     -7.4009373632927454E-6
-0.31412925331019403      0.008595072990810106     0.006999999999999999     1.6939471562635292E-4    -0.0015151717417908905   8.205216920560306E-4     -9.504946897079034E-4
-0.3140974414620044       -0.015705966784552976    0.007                    1.9534077742150907E-4    -8.173283216147164E-5    8.788069152213914E-4     -1.223045818356121E-5
-0.3140351387824267       -0.013665284386327668    0.006999999999999999     1.895384507852158E-4     -1.707467295400383E-4    0.0011890397396210096    3.7806624511282725E-6
-0.313968283832777        0.007289348401241973     0.007                    1.693947156717378E-4     -5.917958182734058E-4    0.002149562144146845     2.1769907457214134E-4
-0.31396688659771754      0.02541655815559369      0.007                    1.707813943656559E-4     1.706516729575219E-5     1.9815168966627183E-4    -6.394779606917082E-6
-0.31394635786872743      0.012997575266130584     0.007                    1.732522705410712E-4     -6.262187381572487E-5    -1.982633208654317E-4    -5.745706073685286E-6
-0.31393645326932734      -0.01137613030289314     0.007000000000000001     1.803161001072952E-4     -4.6969341778586263E-4   0.0018791222305931637    6.2882419621122214E-6
-0.3139005085127794       -0.02624169622547111     0.006999999999999999     2.124098329103847E-4     -3.802545522486654E-5    4.411560978323432E-4     -9.261576756926386E-6
-0.3138696307649989       0.026659344492356463     0.006999999999999999     1.7013930234966896E-4    1.817473528879659E-5     2.134965207648007E-4     -5.837482054195364E-6
-0.3138445673794901       -0.02695521410622571     0.007                    2.1335210720882056E-4    -3.673445366749013E-5    4.2709715115322425E-4    -8.170991720822675E-6
-0.31382413526081593      0.013823866117871186     0.007                    1.7358113211774634E-4    -5.8918102655820585E-5   -1.2774297379604843E-4   -6.546369868582312E-6
-0.3137500000000001       -3.542591344253488E-4    0.007000000000000001     1.6939471595179393E-4    -4.4613240578266085E-4   0.002264920993235199     1.7672883686217455E-4
-0.3137500000000001       -3.542591344253488E-4    0.007000000000000001     1.6939471595179393E-4    -6.831104649071858E-4    8.309424072954248E-7     3.5630292727136094E-7
-0.31375000000000003      -0.009999999999999962    0.006999999999999998     1.6939471635069576E-4    -0.008663068351566494    0.01039848152834558      0.0018335572947230665
-0.31375000000000003      -0.009999999999999962    0.006999999999999998     1.6939471635069576E-4    -0.0021885015697669014   0.0024471128704001166    9.274742956145402E-5
-0.31375000000000003      -0.008729709916911424    0.007                    1.6939471621993935E-4    -2.476841958398096E-4    0.0029555647491424698    0.0014843303656418272
-0.31375000000000003      -0.008729709916911424    0.007                    1.6939471621993932E-4    -0.0018943468412821326   1.2744578990617568E-11   7.350350456444328E-12
-0.31375000000000003      -0.008201973793950941    0.007000000000000001     1.6939471620580916E-4    -0.001249204605408657    0.0019657117747299804    9.66203758101165E-4
-0.31375000000000003      -0.008201973793950941    0.007000000000000001     1.6939471620580913E-4    -0.0016719677948266853   9.673453982830786E-12    7.218344699953576E-12
-0.31375000000000003      -0.007227147492671085    0.006999999999999999     1.6939471617403578E-4    -0.0011189689773749964   0.0017703418506412967    6.928923480355979E-4
-0.31375000000000003      -0.007227147492671085    0.006999999999999999     1.6939471617403578E-4    -0.0013276607269716797   8.124800562565633E-6     4.737416446540729E-6
-0.31375000000000003      -0.006213932964539471    0.007                    1.693947161479104E-4     -0.0011973365478583063   0.0017261784900322453    5.846921477400987E-4
-0.31375000000000003      -0.006213932964539471    0.007                    1.693947161479104E-4     -0.001136791508533549    6.402509289597973E-6     -3.8517500175767206E-6
-0.31375000000000003      -0.005179922266332521    0.006999999999999999     1.6939471611872152E-4    -7.297266939701956E-4    0.0016355660224444135    4.671118458569722E-4
-0.31375000000000003      -0.005179922266332521    0.006999999999999999     1.6939471611872152E-4    -9.9241195440213E-4      2.868435755618365E-6     7.892740721807467E-7
-0.31375000000000003      -0.0036489758568744755   0.007                    1.6939471607058023E-4    -7.512000980976992E-4    0.0020880492111715883    4.884319661764078E-4
-0.31375000000000003      -0.0036489758568744755   0.007                    1.6939471607058023E-4    -8.64352201700256E-4     1.1839024042971374E-11   3.2237829503227983E-12
-0.31375000000000003      -0.003377674797348319    0.007                    1.6939471606165183E-4    -8.14624576237748E-4     0.0020917952778668467    5.430282794051135E-4
-0.31375000000000003      -0.003377674797348319    0.007                    1.6939471606165183E-4    -8.439635682025944E-4    1.2101950693762921E-11   3.1635635918153495E-12
-0.31375000000000003      -0.0029900672408450873   0.007                    1.69394716047886E-4      -7.14975652832674E-4     0.002072828094825768     4.238717829563564E-4
-0.31375000000000003      -0.0029900672408450873   0.007                    1.69394716047886E-4      -8.174498257358513E-4    2.925596862780815E-8     4.47950501592893E-8
-0.31375000000000003      -0.0014855817026016953   0.006999999999999999     1.6939471599608505E-4    -5.611644367774059E-4    0.002284701519575502     3.949176923241765E-4
-0.31375000000000003      -0.0014855817026016953   0.006999999999999999     1.6939471599608508E-4    -7.388296434198572E-4    1.3734495882109553E-11   2.2241009707262166E-12
-0.31375000000000003      9.524492774312672E-4     0.007                    1.6939471590422727E-4    -4.992072462775202E-4    0.0022418062638787295    2.821861409290156E-4
-0.31375000000000003      9.524492774312672E-4     0.007                    1.6939471590422727E-4    -6.375084654693164E-4    -2.6121887652902476E-7   3.6454205767125445E-7
-0.31375000000000003      0.0018625473330961938    0.007                    1.6939471587387855E-4    -4.654551307658458E-4    0.002415365440388397     4.1054273398904783E-4
-0.31375000000000003      0.0018625473330961938    0.007                    1.6939471587387855E-4    -6.121263539649536E-4    1.3871129263116909E-11   2.38838675538574E-12
-0.31375000000000003      0.0026952972893740006    0.007                    1.693947158402806E-4     -4.4412144864316533E-4   0.0023249303877491433    3.0513782104916575E-4
-0.31375000000000003      0.0026952972893740006    0.007                    1.693947158402806E-4     -5.883149006428455E-4    3.636812127265616E-7     5.152960713706277E-7
-0.31375000000000003      0.004273096509307225     0.007                    1.6939471578195165E-4    -4.679097947900876E-4    0.0022602318519235683    3.1350509580546003E-4
-0.31375000000000003      0.004273096509307225     0.007                    1.6939471578195165E-4    -5.627314604678573E-4    -2.767904214694856E-6    1.0673927407963533E-6
-0.31375000000000003      0.0054216532098615615    0.007                    1.6939471574063086E-4    -4.174473876383145E-4    0.0021648348105536264    2.7221564576448737E-4
-0.31375000000000003      0.0054216532098615615    0.007                    1.6939471574063086E-4    -5.508267673562641E-4    -2.2128309605148583E-7   -8.345178890340447E-8
-0.31375000000000003      0.0067472737274608535    0.007                    1.693947156922094E-4     -5.446355479124623E-4    0.0023422197029457047    2.579978992449609E-4
-0.31375000000000003      0.0067472737274608535    0.007                    1.693947156922094E-4     -5.484442479405097E-4    2.4677749100202248E-6    -2.3999904087759858E-6
-0.31375000000000003      0.007335385080392195     0.007                    1.6939471567124122E-4    -4.871233100810643E-4    0.002086060159363967     2.0106222710608427E-4
-0.31375000000000003      0.007335385080392195     0.007                    1.6939471567124122E-4    -5.510856546354124E-4    -2.756376142308988E-6    -2.979798250713987E-7
-0.31375000000000003      0.007946534529204559     0.007                    1.693947156491757E-4     -9.91759819595606E-4     0.0017271211070207595    -2.6150937341981763E-4
-0.31375000000000003      0.007946534529204559     0.007                    1.693947156491757E-4     -5.746235458668896E-4    8.640191004273661E-7     1.0636638518762612E-6
-0.31375000000000003      0.01000000000000004      0.006999999999999999     1.6939471564241998E-4    -0.0019663046653329405   -0.0017802626817164935   4.7931802971135085E-5
-0.31375000000000003      0.01000000000000004      0.006999999999999999     1.6939471564241996E-4    -6.528048754379966E-4    -5.74642650898874E-4     -1.0244232691170303E-5
-0.31375                  0.008746098258400515     0.006999999999999999     1.6939471562795618E-4    -0.0010041526588036398   8.480200736912094E-4     -4.024552830952052E-4
-0.31375                  0.008746098258400515     0.006999999999999999     1.6939471562795618E-4    -6.20750264950216E-4     -8.174633804151288E-6    1.3783536215632017E-6
-0.31373260235179085      -0.02815397114897617     0.006999999999999999     2.1467248326000377E-4    -3.691717792431498E-5    4.125799881843169E-4     -6.590065644232969E-6
-0.3136819920921845       0.011638759370310659     0.006999999999999999     1.7239856679288716E-4    -1.6654450475856925E-4   -3.1069318473999247E-4   7.160059189762638E-8
-0.3136806098520981       -0.014644895385059684    0.007000000000000001     1.9280187603798566E-4    -1.3546271434194187E-4   9.869316863518412E-4     -5.616480293216947E-6
-0.3135643153151938       0.030005278947618803     0.006999999999999999     1.6793637729580315E-4    2.4020511938841823E-5    2.478818715404788E-4     -5.3588473369525275E-6
-0.3135110863243581       0.030590767623927526     0.007000000000000001     1.6756053562017763E-4    2.496778859656781E-5     2.538399641196895E-4     -5.367185928606058E-6
-0.31349331270570957      -0.01160210470115079     0.007                    1.817448997027438E-4     -6.145860849999759E-4    0.0017507283815309418    1.1815385629711462E-5
-0.3134729130626742       0.030956291654718342     0.007                    1.6727529182858228E-4    2.560137846503592E-5     2.5770509938703305E-4    -5.267337856557719E-6
-0.31344312692623655      -0.03126960747980515     0.007                    2.181779207436314E-4     -3.716992297312103E-5    3.7287318926868435E-4    -8.21312844315617E-6
-0.31337092773606223      0.007108202410392667     0.007                    1.6995925107322993E-4    -5.405499944801536E-4    -2.0628727882366976E-6   3.9147225369603113E-7
-0.3133439717626815       -0.03223568503071046     0.007                    2.1914033785119403E-4    -3.7059625893848446E-5   3.623303166001345E-4     -8.208141793485866E-6
-0.3133427252148677       -0.011158047283879348    0.007000000000000001     1.8006767435541673E-4    -8.144512145994393E-4    0.0018013794455821034    -1.378997058705007E-5
-0.31333744354938603      0.008332176975933839     0.007000000000000001     1.7002444424385414E-4    -5.797658084859489E-4    -2.232354475512316E-5    -1.5677231018206035E-6
-0.31333103624929515      -0.012614947484921566    0.007000000000000001     1.864841192872107E-4     -3.629239773067929E-4    0.0013413803568752126    -6.992542204697569E-6
-0.3133258900672161       0.030629834372249254     0.007                    1.6752258707014177E-4    2.42301124387793E-5      2.5457390831131946E-4    -5.28248098596706E-6
-0.3132796612899752       0.012380669692021243     0.007                    1.7300036685446185E-4    -1.5732485617272262E-4   -2.3084970405348967E-4   -3.710546260940055E-7
-0.3132731614166112       -0.0036189378666584083   0.007                    1.7055523535131653E-4    -8.463570453297026E-4    3.7008094162880146E-5    2.9506569824567396E-6
-0.31326868004965247      0.007487693994149683     0.007000000000000001     1.701290976028885E-4     -5.406163518086064E-4    -1.6485982360022577E-5   2.738570833137216E-6
-0.31326497290729904      0.003626941243205679     0.007                    1.7017996842723436E-4    -5.666753630684893E-4    6.785211553309524E-6     -2.485157123650991E-6
-0.3132290130062602       0.008856604059709137     0.007                    1.7029414583250046E-4    -5.970012931279768E-4    -6.592364014505547E-5    -8.924476892809241E-7
-0.31319925637267204      0.01320038711294852      0.007                    1.7353592585454705E-4    -1.0032791391397067E-4   -1.5016483892231654E-4   -3.999787364162907E-6
-0.3131875103605          0.011417357276160639     0.007000000000000001     1.723447249408188E-4     -2.2983201374832633E-4   -3.0045021768293815E-4   1.2819745334146532E-5
-0.31311189992533095      0.03442692049955427      0.007000000000000001     1.6464997418796172E-4    3.2486975014558485E-5    2.944635882636916E-4     -5.709907020506021E-6
-0.3130804981325096       0.011687005904916052     0.007                    1.72687434016329E-4      -2.120565068042566E-4    -2.832429656083453E-4    -3.369596374638525E-6
-0.31307508604861656      1.8718952172221216E-4    0.007000000000000001     1.705828860867041E-4     -6.559814453523459E-4    2.331284322583656E-5     -2.956509454634394E-6
-0.31300065208671246      0.001746380842430206     0.007                    1.7065572805625946E-4    -6.044949899772977E-4    2.10594681723073E-5      3.4960416552919385E-6
-0.31290433769354625      -0.0362544946249403      0.006999999999999999     2.2295488191068514E-4    -3.6305379466554254E-5   3.1490054898622704E-4    -8.351743043293747E-6
-0.31288038637421933      0.036432513892019194     0.007                    1.6285491711901827E-4    3.8769939643518634E-5    3.227393243870128E-4     -7.0837256149701776E-6
-0.31277925203827106      -0.005680619500013561    0.006999999999999999     1.721739035055025E-4     -0.001004997158587959    1.1934179288191833E-4    8.160068249171356E-6
-0.31275376597906335      -0.037539780304232086    0.007                    2.2408696687642687E-4    -3.524458443402695E-5    3.0073902817498606E-4    -8.677791305221833E-6
-0.3127412126737582       -0.013911933339216939    0.007000000000000001     1.9085422789858202E-4    -2.6031141347895414E-4   0.0010591149452430517    -1.585614483020155E-5
-0.31271047975695987      0.01383263824227709      0.006999999999999999     1.7376126296776137E-4    -9.024521007432235E-5    -1.0080351261594208E-4   -7.2783069328046165E-6
-0.3127077150919608       -0.0067498546424396635   0.006999999999999999     1.7270485486958032E-4    -0.0011173489711084061   1.486113538628151E-4     -2.275183442077559E-5
-0.31270505961238937      -0.008643238572565926    0.007                    1.7384218150085648E-4    -0.001480806940727491    4.0314301590040974E-4    -4.577488646970767E-5
-0.3126773157887296       -0.001029985748362751    0.007000000000000001     1.7160930466613634E-4    -6.96685034551295E-4     5.181382895214615E-5     -1.4247371584832334E-6
-0.31266388926501487      -0.010552562496104374    0.007                    1.7953291589509662E-4    -0.0012035186754857101   0.0013330644423202843    -1.4751008885413257E-5
-0.312659536270831        0.016093397504268695     0.006999999999999999     1.7413090953325656E-4    -5.1273885783602454E-5   1.4263380904640271E-5    -3.51018383057013E-6
-0.3126556201223588       -0.004717264569769593    0.006999999999999999     1.7205819383800077E-4    -9.152122213304557E-4    8.66147364600517E-5      1.3243660654511636E-6
-0.31260362026459637      -0.0019059411864349386   0.007                    1.7176145131765286E-4    -7.332118508225671E-4    5.550137413165953E-5     -7.718519433350764E-6
-0.3125934580262478       0.011096739607901692     0.007                    1.726596722360684E-4     -2.618537533515117E-4    -2.1285516979953977E-4   -3.91546945519739E-6
-0.31257103126267666      0.03904197959769515      0.007                    1.6047926690105553E-4    4.4601858620018504E-5    3.589624690750312E-4     -5.358918064948351E-6
-0.3124746556764102       -0.01161053992720366     0.007                    1.836963606040205E-4     -7.117120963516105E-4    0.0014193536010321576    -1.87340656593577E-5
-0.31245180250469456      0.010440222658032556     0.006999999999999999     1.720031798208168E-4     -4.129781214341697E-4    -2.4132148607160312E-4   -6.217157532401651E-6